+ 0.5 0 1 cbr 512 ------- 2 0.0 2.0 0 0
- 0.5 0 1 cbr 512 ------- 2 0.0 2.0 0 0
+ 0.505 0 1 cbr 512 ------- 2 0.0 2.0 1 1
+ 0.51 0 1 cbr 512 ------- 2 0.0 2.0 2 2
- 0.513653 0 1 cbr 512 ------- 2 0.0 2.0 1 1
+ 0.515 0 1 cbr 512 ------- 2 0.0 2.0 3 3
+ 0.52 0 1 cbr 512 ------- 2 0.0 2.0 4 4
+ 0.525 0 1 cbr 512 ------- 2 0.0 2.0 5 5
- 0.527307 0 1 cbr 512 ------- 2 0.0 2.0 2 2
+ 0.53 0 1 cbr 512 ------- 2 0.0 2.0 6 6
r 0.533653 0 1 cbr 512 ------- 2 0.0 2.0 0 0
+ 0.533653 1 2 cbr 512 ------- 2 0.0 2.0 0 0
- 0.533653 1 2 cbr 512 ------- 2 0.0 2.0 0 0
+ 0.535 0 1 cbr 512 ------- 2 0.0 2.0 7 7
+ 0.54 0 1 cbr 512 ------- 2 0.0 2.0 8 8
- 0.54096 0 1 cbr 512 ------- 2 0.0 2.0 3 3
+ 0.545 0 1 cbr 512 ------- 2 0.0 2.0 9 9
r 0.547307 0 1 cbr 512 ------- 2 0.0 2.0 1 1
+ 0.547307 1 2 cbr 512 ------- 2 0.0 2.0 1 1
- 0.547307 1 2 cbr 512 ------- 2 0.0 2.0 1 1
+ 0.55 0 1 cbr 512 ------- 2 0.0 2.0 10 10
- 0.554613 0 1 cbr 512 ------- 2 0.0 2.0 4 4
+ 0.555 0 1 cbr 512 ------- 2 0.0 2.0 11 11
+ 0.56 0 1 cbr 512 ------- 2 0.0 2.0 12 12
r 0.56096 0 1 cbr 512 ------- 2 0.0 2.0 2 2
+ 0.56096 1 2 cbr 512 ------- 2 0.0 2.0 2 2
- 0.56096 1 2 cbr 512 ------- 2 0.0 2.0 2 2
+ 0.565 0 1 cbr 512 ------- 2 0.0 2.0 13 13
r 0.567307 1 2 cbr 512 ------- 2 0.0 2.0 0 0
- 0.568267 0 1 cbr 512 ------- 2 0.0 2.0 5 5
+ 0.57 0 1 cbr 512 ------- 2 0.0 2.0 14 14
r 0.574613 0 1 cbr 512 ------- 2 0.0 2.0 3 3
+ 0.574613 1 2 cbr 512 ------- 2 0.0 2.0 3 3
- 0.574613 1 2 cbr 512 ------- 2 0.0 2.0 3 3
+ 0.575 0 1 cbr 512 ------- 2 0.0 2.0 15 15
d 0.575 0 1 cbr 512 ------- 2 0.0 2.0 15 15
+ 0.58 0 1 cbr 512 ------- 2 0.0 2.0 16 16
d 0.58 0 1 cbr 512 ------- 2 0.0 2.0 16 16
r 0.58096 1 2 cbr 512 ------- 2 0.0 2.0 1 1
- 0.58192 0 1 cbr 512 ------- 2 0.0 2.0 6 6
+ 0.585 0 1 cbr 512 ------- 2 0.0 2.0 17 17
r 0.588267 0 1 cbr 512 ------- 2 0.0 2.0 4 4
+ 0.588267 1 2 cbr 512 ------- 2 0.0 2.0 4 4
- 0.588267 1 2 cbr 512 ------- 2 0.0 2.0 4 4
+ 0.59 0 1 cbr 512 ------- 2 0.0 2.0 18 18
d 0.59 0 1 cbr 512 ------- 2 0.0 2.0 18 18
r 0.594613 1 2 cbr 512 ------- 2 0.0 2.0 2 2
+ 0.595 0 1 cbr 512 ------- 2 0.0 2.0 19 19
d 0.595 0 1 cbr 512 ------- 2 0.0 2.0 19 19
- 0.595573 0 1 cbr 512 ------- 2 0.0 2.0 7 7
+ 0.6 0 1 cbr 512 ------- 2 0.0 2.0 20 20
r 0.60192 0 1 cbr 512 ------- 2 0.0 2.0 5 5
+ 0.60192 1 2 cbr 512 ------- 2 0.0 2.0 5 5
- 0.60192 1 2 cbr 512 ------- 2 0.0 2.0 5 5
+ 0.605 0 1 cbr 512 ------- 2 0.0 2.0 21 21
d 0.605 0 1 cbr 512 ------- 2 0.0 2.0 21 21
r 0.608267 1 2 cbr 512 ------- 2 0.0 2.0 3 3
- 0.609227 0 1 cbr 512 ------- 2 0.0 2.0 8 8
+ 0.61 0 1 cbr 512 ------- 2 0.0 2.0 22 22
+ 0.615 0 1 cbr 512 ------- 2 0.0 2.0 23 23
d 0.615 0 1 cbr 512 ------- 2 0.0 2.0 23 23
r 0.615573 0 1 cbr 512 ------- 2 0.0 2.0 6 6
+ 0.615573 1 2 cbr 512 ------- 2 0.0 2.0 6 6
- 0.615573 1 2 cbr 512 ------- 2 0.0 2.0 6 6
+ 0.62 0 1 cbr 512 ------- 2 0.0 2.0 24 24
d 0.62 0 1 cbr 512 ------- 2 0.0 2.0 24 24
r 0.62192 1 2 cbr 512 ------- 2 0.0 2.0 4 4
- 0.62288 0 1 cbr 512 ------- 2 0.0 2.0 9 9
+ 0.625 0 1 cbr 512 ------- 2 0.0 2.0 25 25
r 0.629227 0 1 cbr 512 ------- 2 0.0 2.0 7 7
+ 0.629227 1 2 cbr 512 ------- 2 0.0 2.0 7 7
- 0.629227 1 2 cbr 512 ------- 2 0.0 2.0 7 7
+ 0.63 0 1 cbr 512 ------- 2 0.0 2.0 26 26
d 0.63 0 1 cbr 512 ------- 2 0.0 2.0 26 26
+ 0.635 0 1 cbr 512 ------- 2 0.0 2.0 27 27
d 0.635 0 1 cbr 512 ------- 2 0.0 2.0 27 27
r 0.635573 1 2 cbr 512 ------- 2 0.0 2.0 5 5
- 0.636533 0 1 cbr 512 ------- 2 0.0 2.0 10 10
+ 0.64 0 1 cbr 512 ------- 2 0.0 2.0 28 28
r 0.64288 0 1 cbr 512 ------- 2 0.0 2.0 8 8
+ 0.64288 1 2 cbr 512 ------- 2 0.0 2.0 8 8
- 0.64288 1 2 cbr 512 ------- 2 0.0 2.0 8 8
+ 0.645 0 1 cbr 512 ------- 2 0.0 2.0 29 29
d 0.645 0 1 cbr 512 ------- 2 0.0 2.0 29 29
r 0.649227 1 2 cbr 512 ------- 2 0.0 2.0 6 6
+ 0.65 0 1 cbr 512 ------- 2 0.0 2.0 30 30
d 0.65 0 1 cbr 512 ------- 2 0.0 2.0 30 30
- 0.650187 0 1 cbr 512 ------- 2 0.0 2.0 11 11
+ 0.655 0 1 cbr 512 ------- 2 0.0 2.0 31 31
r 0.656533 0 1 cbr 512 ------- 2 0.0 2.0 9 9
+ 0.656533 1 2 cbr 512 ------- 2 0.0 2.0 9 9
- 0.656533 1 2 cbr 512 ------- 2 0.0 2.0 9 9
+ 0.66 0 1 cbr 512 ------- 2 0.0 2.0 32 32
d 0.66 0 1 cbr 512 ------- 2 0.0 2.0 32 32
r 0.66288 1 2 cbr 512 ------- 2 0.0 2.0 7 7
- 0.66384 0 1 cbr 512 ------- 2 0.0 2.0 12 12
+ 0.665 0 1 cbr 512 ------- 2 0.0 2.0 33 33
+ 0.67 0 1 cbr 512 ------- 2 0.0 2.0 34 34
d 0.67 0 1 cbr 512 ------- 2 0.0 2.0 34 34
r 0.670187 0 1 cbr 512 ------- 2 0.0 2.0 10 10
+ 0.670187 1 2 cbr 512 ------- 2 0.0 2.0 10 10
- 0.670187 1 2 cbr 512 ------- 2 0.0 2.0 10 10
+ 0.675 0 1 cbr 512 ------- 2 0.0 2.0 35 35
d 0.675 0 1 cbr 512 ------- 2 0.0 2.0 35 35
r 0.676533 1 2 cbr 512 ------- 2 0.0 2.0 8 8
- 0.677493 0 1 cbr 512 ------- 2 0.0 2.0 13 13
+ 0.68 0 1 cbr 512 ------- 2 0.0 2.0 36 36
r 0.68384 0 1 cbr 512 ------- 2 0.0 2.0 11 11
+ 0.68384 1 2 cbr 512 ------- 2 0.0 2.0 11 11
- 0.68384 1 2 cbr 512 ------- 2 0.0 2.0 11 11
+ 0.685 0 1 cbr 512 ------- 2 0.0 2.0 37 37
d 0.685 0 1 cbr 512 ------- 2 0.0 2.0 37 37
+ 0.69 0 1 cbr 512 ------- 2 0.0 2.0 38 38
d 0.69 0 1 cbr 512 ------- 2 0.0 2.0 38 38
r 0.690187 1 2 cbr 512 ------- 2 0.0 2.0 9 9
- 0.691147 0 1 cbr 512 ------- 2 0.0 2.0 14 14
+ 0.695 0 1 cbr 512 ------- 2 0.0 2.0 39 39
r 0.697493 0 1 cbr 512 ------- 2 0.0 2.0 12 12
+ 0.697493 1 2 cbr 512 ------- 2 0.0 2.0 12 12
- 0.697493 1 2 cbr 512 ------- 2 0.0 2.0 12 12
+ 0.7 0 1 cbr 512 ------- 2 0.0 2.0 40 40
d 0.7 0 1 cbr 512 ------- 2 0.0 2.0 40 40
r 0.70384 1 2 cbr 512 ------- 2 0.0 2.0 10 10
- 0.7048 0 1 cbr 512 ------- 2 0.0 2.0 17 17
+ 0.705 0 1 cbr 512 ------- 2 0.0 2.0 41 41
+ 0.71 0 1 cbr 512 ------- 2 0.0 2.0 42 42
d 0.71 0 1 cbr 512 ------- 2 0.0 2.0 42 42
r 0.711147 0 1 cbr 512 ------- 2 0.0 2.0 13 13
+ 0.711147 1 2 cbr 512 ------- 2 0.0 2.0 13 13
- 0.711147 1 2 cbr 512 ------- 2 0.0 2.0 13 13
+ 0.715 0 1 cbr 512 ------- 2 0.0 2.0 43 43
d 0.715 0 1 cbr 512 ------- 2 0.0 2.0 43 43
r 0.717493 1 2 cbr 512 ------- 2 0.0 2.0 11 11
- 0.718453 0 1 cbr 512 ------- 2 0.0 2.0 20 20
+ 0.72 0 1 cbr 512 ------- 2 0.0 2.0 44 44
r 0.7248 0 1 cbr 512 ------- 2 0.0 2.0 14 14
+ 0.7248 1 2 cbr 512 ------- 2 0.0 2.0 14 14
- 0.7248 1 2 cbr 512 ------- 2 0.0 2.0 14 14
+ 0.725 0 1 cbr 512 ------- 2 0.0 2.0 45 45
d 0.725 0 1 cbr 512 ------- 2 0.0 2.0 45 45
+ 0.73 0 1 cbr 512 ------- 2 0.0 2.0 46 46
d 0.73 0 1 cbr 512 ------- 2 0.0 2.0 46 46
r 0.731147 1 2 cbr 512 ------- 2 0.0 2.0 12 12
- 0.732107 0 1 cbr 512 ------- 2 0.0 2.0 22 22
+ 0.735 0 1 cbr 512 ------- 2 0.0 2.0 47 47
r 0.738453 0 1 cbr 512 ------- 2 0.0 2.0 17 17
+ 0.738453 1 2 cbr 512 ------- 2 0.0 2.0 17 17
- 0.738453 1 2 cbr 512 ------- 2 0.0 2.0 17 17
+ 0.74 0 1 cbr 512 ------- 2 0.0 2.0 48 48
d 0.74 0 1 cbr 512 ------- 2 0.0 2.0 48 48
r 0.7448 1 2 cbr 512 ------- 2 0.0 2.0 13 13
+ 0.745 0 1 cbr 512 ------- 2 0.0 2.0 49 49
d 0.745 0 1 cbr 512 ------- 2 0.0 2.0 49 49
- 0.74576 0 1 cbr 512 ------- 2 0.0 2.0 25 25
+ 0.75 0 1 cbr 512 ------- 2 0.0 2.0 50 50
r 0.752107 0 1 cbr 512 ------- 2 0.0 2.0 20 20
+ 0.752107 1 2 cbr 512 ------- 2 0.0 2.0 20 20
- 0.752107 1 2 cbr 512 ------- 2 0.0 2.0 20 20
+ 0.755 0 1 cbr 512 ------- 2 0.0 2.0 51 51
d 0.755 0 1 cbr 512 ------- 2 0.0 2.0 51 51
r 0.758453 1 2 cbr 512 ------- 2 0.0 2.0 14 14
- 0.759413 0 1 cbr 512 ------- 2 0.0 2.0 28 28
+ 0.76 0 1 cbr 512 ------- 2 0.0 2.0 52 52
+ 0.765 0 1 cbr 512 ------- 2 0.0 2.0 53 53
d 0.765 0 1 cbr 512 ------- 2 0.0 2.0 53 53
r 0.76576 0 1 cbr 512 ------- 2 0.0 2.0 22 22
+ 0.76576 1 2 cbr 512 ------- 2 0.0 2.0 22 22
- 0.76576 1 2 cbr 512 ------- 2 0.0 2.0 22 22
+ 0.77 0 1 cbr 512 ------- 2 0.0 2.0 54 54
d 0.77 0 1 cbr 512 ------- 2 0.0 2.0 54 54
r 0.772107 1 2 cbr 512 ------- 2 0.0 2.0 17 17
- 0.773067 0 1 cbr 512 ------- 2 0.0 2.0 31 31
+ 0.775 0 1 cbr 512 ------- 2 0.0 2.0 55 55
r 0.779413 0 1 cbr 512 ------- 2 0.0 2.0 25 25
+ 0.779413 1 2 cbr 512 ------- 2 0.0 2.0 25 25
- 0.779413 1 2 cbr 512 ------- 2 0.0 2.0 25 25
+ 0.78 0 1 cbr 512 ------- 2 0.0 2.0 56 56
d 0.78 0 1 cbr 512 ------- 2 0.0 2.0 56 56
+ 0.785 0 1 cbr 512 ------- 2 0.0 2.0 57 57
d 0.785 0 1 cbr 512 ------- 2 0.0 2.0 57 57
r 0.78576 1 2 cbr 512 ------- 2 0.0 2.0 20 20
- 0.78672 0 1 cbr 512 ------- 2 0.0 2.0 33 33
+ 0.79 0 1 cbr 512 ------- 2 0.0 2.0 58 58
r 0.793067 0 1 cbr 512 ------- 2 0.0 2.0 28 28
+ 0.793067 1 2 cbr 512 ------- 2 0.0 2.0 28 28
- 0.793067 1 2 cbr 512 ------- 2 0.0 2.0 28 28
+ 0.795 0 1 cbr 512 ------- 2 0.0 2.0 59 59
d 0.795 0 1 cbr 512 ------- 2 0.0 2.0 59 59
r 0.799413 1 2 cbr 512 ------- 2 0.0 2.0 22 22
+ 0.8 0 1 cbr 512 ------- 2 0.0 2.0 60 60
d 0.8 0 1 cbr 512 ------- 2 0.0 2.0 60 60
- 0.800373 0 1 cbr 512 ------- 2 0.0 2.0 36 36
+ 0.805 0 1 cbr 512 ------- 2 0.0 2.0 61 61
r 0.80672 0 1 cbr 512 ------- 2 0.0 2.0 31 31
+ 0.80672 1 2 cbr 512 ------- 2 0.0 2.0 31 31
- 0.80672 1 2 cbr 512 ------- 2 0.0 2.0 31 31
+ 0.81 0 1 cbr 512 ------- 2 0.0 2.0 62 62
d 0.81 0 1 cbr 512 ------- 2 0.0 2.0 62 62
r 0.813067 1 2 cbr 512 ------- 2 0.0 2.0 25 25
- 0.814027 0 1 cbr 512 ------- 2 0.0 2.0 39 39
+ 0.815 0 1 cbr 512 ------- 2 0.0 2.0 63 63
+ 0.82 0 1 cbr 512 ------- 2 0.0 2.0 64 64
d 0.82 0 1 cbr 512 ------- 2 0.0 2.0 64 64
r 0.820373 0 1 cbr 512 ------- 2 0.0 2.0 33 33
+ 0.820373 1 2 cbr 512 ------- 2 0.0 2.0 33 33
- 0.820373 1 2 cbr 512 ------- 2 0.0 2.0 33 33
+ 0.825 0 1 cbr 512 ------- 2 0.0 2.0 65 65
d 0.825 0 1 cbr 512 ------- 2 0.0 2.0 65 65
r 0.82672 1 2 cbr 512 ------- 2 0.0 2.0 28 28
- 0.82768 0 1 cbr 512 ------- 2 0.0 2.0 41 41
+ 0.83 0 1 cbr 512 ------- 2 0.0 2.0 66 66
r 0.834027 0 1 cbr 512 ------- 2 0.0 2.0 36 36
+ 0.834027 1 2 cbr 512 ------- 2 0.0 2.0 36 36
- 0.834027 1 2 cbr 512 ------- 2 0.0 2.0 36 36
+ 0.835 0 1 cbr 512 ------- 2 0.0 2.0 67 67
d 0.835 0 1 cbr 512 ------- 2 0.0 2.0 67 67
+ 0.84 0 1 cbr 512 ------- 2 0.0 2.0 68 68
d 0.84 0 1 cbr 512 ------- 2 0.0 2.0 68 68
r 0.840373 1 2 cbr 512 ------- 2 0.0 2.0 31 31
- 0.841333 0 1 cbr 512 ------- 2 0.0 2.0 44 44
+ 0.845 0 1 cbr 512 ------- 2 0.0 2.0 69 69
r 0.84768 0 1 cbr 512 ------- 2 0.0 2.0 39 39
+ 0.84768 1 2 cbr 512 ------- 2 0.0 2.0 39 39
- 0.84768 1 2 cbr 512 ------- 2 0.0 2.0 39 39
+ 0.85 0 1 cbr 512 ------- 2 0.0 2.0 70 70
d 0.85 0 1 cbr 512 ------- 2 0.0 2.0 70 70
r 0.854027 1 2 cbr 512 ------- 2 0.0 2.0 33 33
- 0.854987 0 1 cbr 512 ------- 2 0.0 2.0 47 47
+ 0.855 0 1 cbr 512 ------- 2 0.0 2.0 71 71
+ 0.86 0 1 cbr 512 ------- 2 0.0 2.0 72 72
d 0.86 0 1 cbr 512 ------- 2 0.0 2.0 72 72
r 0.861333 0 1 cbr 512 ------- 2 0.0 2.0 41 41
+ 0.861333 1 2 cbr 512 ------- 2 0.0 2.0 41 41
- 0.861333 1 2 cbr 512 ------- 2 0.0 2.0 41 41
+ 0.865 0 1 cbr 512 ------- 2 0.0 2.0 73 73
d 0.865 0 1 cbr 512 ------- 2 0.0 2.0 73 73
r 0.86768 1 2 cbr 512 ------- 2 0.0 2.0 36 36
- 0.86864 0 1 cbr 512 ------- 2 0.0 2.0 50 50
+ 0.87 0 1 cbr 512 ------- 2 0.0 2.0 74 74
r 0.874987 0 1 cbr 512 ------- 2 0.0 2.0 44 44
+ 0.874987 1 2 cbr 512 ------- 2 0.0 2.0 44 44
- 0.874987 1 2 cbr 512 ------- 2 0.0 2.0 44 44
+ 0.875 0 1 cbr 512 ------- 2 0.0 2.0 75 75
d 0.875 0 1 cbr 512 ------- 2 0.0 2.0 75 75
+ 0.88 0 1 cbr 512 ------- 2 0.0 2.0 76 76
d 0.88 0 1 cbr 512 ------- 2 0.0 2.0 76 76
r 0.881333 1 2 cbr 512 ------- 2 0.0 2.0 39 39
- 0.882293 0 1 cbr 512 ------- 2 0.0 2.0 52 52
+ 0.885 0 1 cbr 512 ------- 2 0.0 2.0 77 77
r 0.88864 0 1 cbr 512 ------- 2 0.0 2.0 47 47
+ 0.88864 1 2 cbr 512 ------- 2 0.0 2.0 47 47
- 0.88864 1 2 cbr 512 ------- 2 0.0 2.0 47 47
+ 0.89 0 1 cbr 512 ------- 2 0.0 2.0 78 78
d 0.89 0 1 cbr 512 ------- 2 0.0 2.0 78 78
r 0.894987 1 2 cbr 512 ------- 2 0.0 2.0 41 41
+ 0.895 0 1 cbr 512 ------- 2 0.0 2.0 79 79
d 0.895 0 1 cbr 512 ------- 2 0.0 2.0 79 79
- 0.895947 0 1 cbr 512 ------- 2 0.0 2.0 55 55
+ 0.9 0 1 cbr 512 ------- 2 0.0 2.0 80 80
r 0.902293 0 1 cbr 512 ------- 2 0.0 2.0 50 50
+ 0.902293 1 2 cbr 512 ------- 2 0.0 2.0 50 50
- 0.902293 1 2 cbr 512 ------- 2 0.0 2.0 50 50
+ 0.905 0 1 cbr 512 ------- 2 0.0 2.0 81 81
d 0.905 0 1 cbr 512 ------- 2 0.0 2.0 81 81
r 0.90864 1 2 cbr 512 ------- 2 0.0 2.0 44 44
- 0.9096 0 1 cbr 512 ------- 2 0.0 2.0 58 58
+ 0.91 0 1 cbr 512 ------- 2 0.0 2.0 82 82
+ 0.915 0 1 cbr 512 ------- 2 0.0 2.0 83 83
d 0.915 0 1 cbr 512 ------- 2 0.0 2.0 83 83
r 0.915947 0 1 cbr 512 ------- 2 0.0 2.0 52 52
+ 0.915947 1 2 cbr 512 ------- 2 0.0 2.0 52 52
- 0.915947 1 2 cbr 512 ------- 2 0.0 2.0 52 52
+ 0.92 0 1 cbr 512 ------- 2 0.0 2.0 84 84
d 0.92 0 1 cbr 512 ------- 2 0.0 2.0 84 84
r 0.922293 1 2 cbr 512 ------- 2 0.0 2.0 47 47
- 0.923253 0 1 cbr 512 ------- 2 0.0 2.0 61 61
+ 0.925 0 1 cbr 512 ------- 2 0.0 2.0 85 85
r 0.9296 0 1 cbr 512 ------- 2 0.0 2.0 55 55
+ 0.9296 1 2 cbr 512 ------- 2 0.0 2.0 55 55
- 0.9296 1 2 cbr 512 ------- 2 0.0 2.0 55 55
+ 0.93 0 1 cbr 512 ------- 2 0.0 2.0 86 86
d 0.93 0 1 cbr 512 ------- 2 0.0 2.0 86 86
+ 0.935 0 1 cbr 512 ------- 2 0.0 2.0 87 87
d 0.935 0 1 cbr 512 ------- 2 0.0 2.0 87 87
r 0.935947 1 2 cbr 512 ------- 2 0.0 2.0 50 50
- 0.936907 0 1 cbr 512 ------- 2 0.0 2.0 63 63
+ 0.94 0 1 cbr 512 ------- 2 0.0 2.0 88 88
r 0.943253 0 1 cbr 512 ------- 2 0.0 2.0 58 58
+ 0.943253 1 2 cbr 512 ------- 2 0.0 2.0 58 58
- 0.943253 1 2 cbr 512 ------- 2 0.0 2.0 58 58
+ 0.945 0 1 cbr 512 ------- 2 0.0 2.0 89 89
d 0.945 0 1 cbr 512 ------- 2 0.0 2.0 89 89
r 0.9496 1 2 cbr 512 ------- 2 0.0 2.0 52 52
+ 0.95 0 1 cbr 512 ------- 2 0.0 2.0 90 90
d 0.95 0 1 cbr 512 ------- 2 0.0 2.0 90 90
- 0.95056 0 1 cbr 512 ------- 2 0.0 2.0 66 66
+ 0.955 0 1 cbr 512 ------- 2 0.0 2.0 91 91
r 0.956907 0 1 cbr 512 ------- 2 0.0 2.0 61 61
+ 0.956907 1 2 cbr 512 ------- 2 0.0 2.0 61 61
- 0.956907 1 2 cbr 512 ------- 2 0.0 2.0 61 61
+ 0.96 0 1 cbr 512 ------- 2 0.0 2.0 92 92
d 0.96 0 1 cbr 512 ------- 2 0.0 2.0 92 92
r 0.963253 1 2 cbr 512 ------- 2 0.0 2.0 55 55
- 0.964213 0 1 cbr 512 ------- 2 0.0 2.0 69 69
+ 0.965 0 1 cbr 512 ------- 2 0.0 2.0 93 93
+ 0.97 0 1 cbr 512 ------- 2 0.0 2.0 94 94
d 0.97 0 1 cbr 512 ------- 2 0.0 2.0 94 94
r 0.97056 0 1 cbr 512 ------- 2 0.0 2.0 63 63
+ 0.97056 1 2 cbr 512 ------- 2 0.0 2.0 63 63
- 0.97056 1 2 cbr 512 ------- 2 0.0 2.0 63 63
+ 0.975 0 1 cbr 512 ------- 2 0.0 2.0 95 95
d 0.975 0 1 cbr 512 ------- 2 0.0 2.0 95 95
r 0.976907 1 2 cbr 512 ------- 2 0.0 2.0 58 58
- 0.977867 0 1 cbr 512 ------- 2 0.0 2.0 71 71
+ 0.98 0 1 cbr 512 ------- 2 0.0 2.0 96 96
r 0.984213 0 1 cbr 512 ------- 2 0.0 2.0 66 66
+ 0.984213 1 2 cbr 512 ------- 2 0.0 2.0 66 66
- 0.984213 1 2 cbr 512 ------- 2 0.0 2.0 66 66
+ 0.985 0 1 cbr 512 ------- 2 0.0 2.0 97 97
d 0.985 0 1 cbr 512 ------- 2 0.0 2.0 97 97
+ 0.99 0 1 cbr 512 ------- 2 0.0 2.0 98 98
d 0.99 0 1 cbr 512 ------- 2 0.0 2.0 98 98
r 0.99056 1 2 cbr 512 ------- 2 0.0 2.0 61 61
- 0.99152 0 1 cbr 512 ------- 2 0.0 2.0 74 74
+ 0.995 0 1 cbr 512 ------- 2 0.0 2.0 99 99
r 0.997867 0 1 cbr 512 ------- 2 0.0 2.0 69 69
+ 0.997867 1 2 cbr 512 ------- 2 0.0 2.0 69 69
- 0.997867 1 2 cbr 512 ------- 2 0.0 2.0 69 69
+ 1 0 1 cbr 512 ------- 2 0.0 2.0 100 100
d 1 0 1 cbr 512 ------- 2 0.0 2.0 100 100
r 1.004213 1 2 cbr 512 ------- 2 0.0 2.0 63 63
+ 1.005 0 1 cbr 512 ------- 2 0.0 2.0 101 101
d 1.005 0 1 cbr 512 ------- 2 0.0 2.0 101 101
- 1.005173 0 1 cbr 512 ------- 2 0.0 2.0 77 77
+ 1.01 0 1 cbr 512 ------- 2 0.0 2.0 102 102
r 1.01152 0 1 cbr 512 ------- 2 0.0 2.0 71 71
+ 1.01152 1 2 cbr 512 ------- 2 0.0 2.0 71 71
- 1.01152 1 2 cbr 512 ------- 2 0.0 2.0 71 71
+ 1.015 0 1 cbr 512 ------- 2 0.0 2.0 103 103
d 1.015 0 1 cbr 512 ------- 2 0.0 2.0 103 103
r 1.017867 1 2 cbr 512 ------- 2 0.0 2.0 66 66
- 1.018827 0 1 cbr 512 ------- 2 0.0 2.0 80 80
+ 1.02 0 1 cbr 512 ------- 2 0.0 2.0 104 104
+ 1.025 0 1 cbr 512 ------- 2 0.0 2.0 105 105
d 1.025 0 1 cbr 512 ------- 2 0.0 2.0 105 105
r 1.025173 0 1 cbr 512 ------- 2 0.0 2.0 74 74
+ 1.025173 1 2 cbr 512 ------- 2 0.0 2.0 74 74
- 1.025173 1 2 cbr 512 ------- 2 0.0 2.0 74 74
+ 1.03 0 1 cbr 512 ------- 2 0.0 2.0 106 106
d 1.03 0 1 cbr 512 ------- 2 0.0 2.0 106 106
r 1.03152 1 2 cbr 512 ------- 2 0.0 2.0 69 69
- 1.03248 0 1 cbr 512 ------- 2 0.0 2.0 82 82
+ 1.035 0 1 cbr 512 ------- 2 0.0 2.0 107 107
r 1.038827 0 1 cbr 512 ------- 2 0.0 2.0 77 77
+ 1.038827 1 2 cbr 512 ------- 2 0.0 2.0 77 77
- 1.038827 1 2 cbr 512 ------- 2 0.0 2.0 77 77
+ 1.04 0 1 cbr 512 ------- 2 0.0 2.0 108 108
d 1.04 0 1 cbr 512 ------- 2 0.0 2.0 108 108
+ 1.045 0 1 cbr 512 ------- 2 0.0 2.0 109 109
d 1.045 0 1 cbr 512 ------- 2 0.0 2.0 109 109
r 1.045173 1 2 cbr 512 ------- 2 0.0 2.0 71 71
- 1.046133 0 1 cbr 512 ------- 2 0.0 2.0 85 85
+ 1.05 0 1 cbr 512 ------- 2 0.0 2.0 110 110
r 1.05248 0 1 cbr 512 ------- 2 0.0 2.0 80 80
+ 1.05248 1 2 cbr 512 ------- 2 0.0 2.0 80 80
- 1.05248 1 2 cbr 512 ------- 2 0.0 2.0 80 80
+ 1.055 0 1 cbr 512 ------- 2 0.0 2.0 111 111
d 1.055 0 1 cbr 512 ------- 2 0.0 2.0 111 111
r 1.058827 1 2 cbr 512 ------- 2 0.0 2.0 74 74
- 1.059787 0 1 cbr 512 ------- 2 0.0 2.0 88 88
+ 1.06 0 1 cbr 512 ------- 2 0.0 2.0 112 112
+ 1.065 0 1 cbr 512 ------- 2 0.0 2.0 113 113
d 1.065 0 1 cbr 512 ------- 2 0.0 2.0 113 113
r 1.066133 0 1 cbr 512 ------- 2 0.0 2.0 82 82
+ 1.066133 1 2 cbr 512 ------- 2 0.0 2.0 82 82
- 1.066133 1 2 cbr 512 ------- 2 0.0 2.0 82 82
+ 1.07 0 1 cbr 512 ------- 2 0.0 2.0 114 114
d 1.07 0 1 cbr 512 ------- 2 0.0 2.0 114 114
r 1.07248 1 2 cbr 512 ------- 2 0.0 2.0 77 77
- 1.07344 0 1 cbr 512 ------- 2 0.0 2.0 91 91
+ 1.075 0 1 cbr 512 ------- 2 0.0 2.0 115 115
r 1.079787 0 1 cbr 512 ------- 2 0.0 2.0 85 85
+ 1.079787 1 2 cbr 512 ------- 2 0.0 2.0 85 85
- 1.079787 1 2 cbr 512 ------- 2 0.0 2.0 85 85
+ 1.08 0 1 cbr 512 ------- 2 0.0 2.0 116 116
d 1.08 0 1 cbr 512 ------- 2 0.0 2.0 116 116
+ 1.085 0 1 cbr 512 ------- 2 0.0 2.0 117 117
d 1.085 0 1 cbr 512 ------- 2 0.0 2.0 117 117
r 1.086133 1 2 cbr 512 ------- 2 0.0 2.0 80 80
- 1.087093 0 1 cbr 512 ------- 2 0.0 2.0 93 93
+ 1.09 0 1 cbr 512 ------- 2 0.0 2.0 118 118
r 1.09344 0 1 cbr 512 ------- 2 0.0 2.0 88 88
+ 1.09344 1 2 cbr 512 ------- 2 0.0 2.0 88 88
- 1.09344 1 2 cbr 512 ------- 2 0.0 2.0 88 88
+ 1.095 0 1 cbr 512 ------- 2 0.0 2.0 119 119
d 1.095 0 1 cbr 512 ------- 2 0.0 2.0 119 119
r 1.099787 1 2 cbr 512 ------- 2 0.0 2.0 82 82
+ 1.1 0 1 cbr 512 ------- 2 0.0 2.0 120 120
d 1.1 0 1 cbr 512 ------- 2 0.0 2.0 120 120
- 1.100747 0 1 cbr 512 ------- 2 0.0 2.0 96 96
+ 1.105 0 1 cbr 512 ------- 2 0.0 2.0 121 121
r 1.107093 0 1 cbr 512 ------- 2 0.0 2.0 91 91
+ 1.107093 1 2 cbr 512 ------- 2 0.0 2.0 91 91
- 1.107093 1 2 cbr 512 ------- 2 0.0 2.0 91 91
+ 1.11 0 1 cbr 512 ------- 2 0.0 2.0 122 122
d 1.11 0 1 cbr 512 ------- 2 0.0 2.0 122 122
r 1.11344 1 2 cbr 512 ------- 2 0.0 2.0 85 85
- 1.1144 0 1 cbr 512 ------- 2 0.0 2.0 99 99
+ 1.115 0 1 cbr 512 ------- 2 0.0 2.0 123 123
+ 1.12 0 1 cbr 512 ------- 2 0.0 2.0 124 124
d 1.12 0 1 cbr 512 ------- 2 0.0 2.0 124 124
r 1.120747 0 1 cbr 512 ------- 2 0.0 2.0 93 93
+ 1.120747 1 2 cbr 512 ------- 2 0.0 2.0 93 93
- 1.120747 1 2 cbr 512 ------- 2 0.0 2.0 93 93
+ 1.125 0 1 cbr 512 ------- 2 0.0 2.0 125 125
d 1.125 0 1 cbr 512 ------- 2 0.0 2.0 125 125
r 1.127093 1 2 cbr 512 ------- 2 0.0 2.0 88 88
- 1.128053 0 1 cbr 512 ------- 2 0.0 2.0 102 102
+ 1.13 0 1 cbr 512 ------- 2 0.0 2.0 126 126
r 1.1344 0 1 cbr 512 ------- 2 0.0 2.0 96 96
+ 1.1344 1 2 cbr 512 ------- 2 0.0 2.0 96 96
- 1.1344 1 2 cbr 512 ------- 2 0.0 2.0 96 96
+ 1.135 0 1 cbr 512 ------- 2 0.0 2.0 127 127
d 1.135 0 1 cbr 512 ------- 2 0.0 2.0 127 127
+ 1.14 0 1 cbr 512 ------- 2 0.0 2.0 128 128
d 1.14 0 1 cbr 512 ------- 2 0.0 2.0 128 128
r 1.140747 1 2 cbr 512 ------- 2 0.0 2.0 91 91
- 1.141707 0 1 cbr 512 ------- 2 0.0 2.0 104 104
+ 1.145 0 1 cbr 512 ------- 2 0.0 2.0 129 129
r 1.148053 0 1 cbr 512 ------- 2 0.0 2.0 99 99
+ 1.148053 1 2 cbr 512 ------- 2 0.0 2.0 99 99
- 1.148053 1 2 cbr 512 ------- 2 0.0 2.0 99 99
+ 1.15 0 1 cbr 512 ------- 2 0.0 2.0 130 130
d 1.15 0 1 cbr 512 ------- 2 0.0 2.0 130 130
r 1.1544 1 2 cbr 512 ------- 2 0.0 2.0 93 93
+ 1.155 0 1 cbr 512 ------- 2 0.0 2.0 131 131
d 1.155 0 1 cbr 512 ------- 2 0.0 2.0 131 131
- 1.15536 0 1 cbr 512 ------- 2 0.0 2.0 107 107
+ 1.16 0 1 cbr 512 ------- 2 0.0 2.0 132 132
r 1.161707 0 1 cbr 512 ------- 2 0.0 2.0 102 102
+ 1.161707 1 2 cbr 512 ------- 2 0.0 2.0 102 102
- 1.161707 1 2 cbr 512 ------- 2 0.0 2.0 102 102
+ 1.165 0 1 cbr 512 ------- 2 0.0 2.0 133 133
d 1.165 0 1 cbr 512 ------- 2 0.0 2.0 133 133
r 1.168053 1 2 cbr 512 ------- 2 0.0 2.0 96 96
- 1.169013 0 1 cbr 512 ------- 2 0.0 2.0 110 110
+ 1.17 0 1 cbr 512 ------- 2 0.0 2.0 134 134
+ 1.175 0 1 cbr 512 ------- 2 0.0 2.0 135 135
d 1.175 0 1 cbr 512 ------- 2 0.0 2.0 135 135
r 1.17536 0 1 cbr 512 ------- 2 0.0 2.0 104 104
+ 1.17536 1 2 cbr 512 ------- 2 0.0 2.0 104 104
- 1.17536 1 2 cbr 512 ------- 2 0.0 2.0 104 104
+ 1.18 0 1 cbr 512 ------- 2 0.0 2.0 136 136
d 1.18 0 1 cbr 512 ------- 2 0.0 2.0 136 136
r 1.181707 1 2 cbr 512 ------- 2 0.0 2.0 99 99
- 1.182667 0 1 cbr 512 ------- 2 0.0 2.0 112 112
+ 1.185 0 1 cbr 512 ------- 2 0.0 2.0 137 137
r 1.189013 0 1 cbr 512 ------- 2 0.0 2.0 107 107
+ 1.189013 1 2 cbr 512 ------- 2 0.0 2.0 107 107
- 1.189013 1 2 cbr 512 ------- 2 0.0 2.0 107 107
+ 1.19 0 1 cbr 512 ------- 2 0.0 2.0 138 138
d 1.19 0 1 cbr 512 ------- 2 0.0 2.0 138 138
+ 1.195 0 1 cbr 512 ------- 2 0.0 2.0 139 139
d 1.195 0 1 cbr 512 ------- 2 0.0 2.0 139 139
r 1.19536 1 2 cbr 512 ------- 2 0.0 2.0 102 102
- 1.19632 0 1 cbr 512 ------- 2 0.0 2.0 115 115
+ 1.2 0 1 cbr 512 ------- 2 0.0 2.0 140 140
r 1.202667 0 1 cbr 512 ------- 2 0.0 2.0 110 110
+ 1.202667 1 2 cbr 512 ------- 2 0.0 2.0 110 110
- 1.202667 1 2 cbr 512 ------- 2 0.0 2.0 110 110
+ 1.205 0 1 cbr 512 ------- 2 0.0 2.0 141 141
d 1.205 0 1 cbr 512 ------- 2 0.0 2.0 141 141
r 1.209013 1 2 cbr 512 ------- 2 0.0 2.0 104 104
- 1.209973 0 1 cbr 512 ------- 2 0.0 2.0 118 118
+ 1.21 0 1 cbr 512 ------- 2 0.0 2.0 142 142
+ 1.215 0 1 cbr 512 ------- 2 0.0 2.0 143 143
d 1.215 0 1 cbr 512 ------- 2 0.0 2.0 143 143
r 1.21632 0 1 cbr 512 ------- 2 0.0 2.0 112 112
+ 1.21632 1 2 cbr 512 ------- 2 0.0 2.0 112 112
- 1.21632 1 2 cbr 512 ------- 2 0.0 2.0 112 112
+ 1.22 0 1 cbr 512 ------- 2 0.0 2.0 144 144
d 1.22 0 1 cbr 512 ------- 2 0.0 2.0 144 144
r 1.222667 1 2 cbr 512 ------- 2 0.0 2.0 107 107
- 1.223627 0 1 cbr 512 ------- 2 0.0 2.0 121 121
+ 1.225 0 1 cbr 512 ------- 2 0.0 2.0 145 145
r 1.229973 0 1 cbr 512 ------- 2 0.0 2.0 115 115
+ 1.229973 1 2 cbr 512 ------- 2 0.0 2.0 115 115
- 1.229973 1 2 cbr 512 ------- 2 0.0 2.0 115 115
+ 1.23 0 1 cbr 512 ------- 2 0.0 2.0 146 146
d 1.23 0 1 cbr 512 ------- 2 0.0 2.0 146 146
+ 1.235 0 1 cbr 512 ------- 2 0.0 2.0 147 147
d 1.235 0 1 cbr 512 ------- 2 0.0 2.0 147 147
r 1.23632 1 2 cbr 512 ------- 2 0.0 2.0 110 110
- 1.23728 0 1 cbr 512 ------- 2 0.0 2.0 123 123
+ 1.24 0 1 cbr 512 ------- 2 0.0 2.0 148 148
r 1.243627 0 1 cbr 512 ------- 2 0.0 2.0 118 118
+ 1.243627 1 2 cbr 512 ------- 2 0.0 2.0 118 118
- 1.243627 1 2 cbr 512 ------- 2 0.0 2.0 118 118
+ 1.245 0 1 cbr 512 ------- 2 0.0 2.0 149 149
d 1.245 0 1 cbr 512 ------- 2 0.0 2.0 149 149
r 1.249973 1 2 cbr 512 ------- 2 0.0 2.0 112 112
+ 1.25 0 1 cbr 512 ------- 2 0.0 2.0 150 150
d 1.25 0 1 cbr 512 ------- 2 0.0 2.0 150 150
- 1.250933 0 1 cbr 512 ------- 2 0.0 2.0 126 126
+ 1.255 0 1 cbr 512 ------- 2 0.0 2.0 151 151
r 1.25728 0 1 cbr 512 ------- 2 0.0 2.0 121 121
+ 1.25728 1 2 cbr 512 ------- 2 0.0 2.0 121 121
- 1.25728 1 2 cbr 512 ------- 2 0.0 2.0 121 121
+ 1.26 0 1 cbr 512 ------- 2 0.0 2.0 152 152
d 1.26 0 1 cbr 512 ------- 2 0.0 2.0 152 152
r 1.263627 1 2 cbr 512 ------- 2 0.0 2.0 115 115
- 1.264587 0 1 cbr 512 ------- 2 0.0 2.0 129 129
+ 1.265 0 1 cbr 512 ------- 2 0.0 2.0 153 153
+ 1.27 0 1 cbr 512 ------- 2 0.0 2.0 154 154
d 1.27 0 1 cbr 512 ------- 2 0.0 2.0 154 154
r 1.270933 0 1 cbr 512 ------- 2 0.0 2.0 123 123
+ 1.270933 1 2 cbr 512 ------- 2 0.0 2.0 123 123
- 1.270933 1 2 cbr 512 ------- 2 0.0 2.0 123 123
+ 1.275 0 1 cbr 512 ------- 2 0.0 2.0 155 155
d 1.275 0 1 cbr 512 ------- 2 0.0 2.0 155 155
r 1.27728 1 2 cbr 512 ------- 2 0.0 2.0 118 118
- 1.27824 0 1 cbr 512 ------- 2 0.0 2.0 132 132
+ 1.28 0 1 cbr 512 ------- 2 0.0 2.0 156 156
r 1.284587 0 1 cbr 512 ------- 2 0.0 2.0 126 126
+ 1.284587 1 2 cbr 512 ------- 2 0.0 2.0 126 126
- 1.284587 1 2 cbr 512 ------- 2 0.0 2.0 126 126
+ 1.285 0 1 cbr 512 ------- 2 0.0 2.0 157 157
d 1.285 0 1 cbr 512 ------- 2 0.0 2.0 157 157
+ 1.29 0 1 cbr 512 ------- 2 0.0 2.0 158 158
d 1.29 0 1 cbr 512 ------- 2 0.0 2.0 158 158
r 1.290933 1 2 cbr 512 ------- 2 0.0 2.0 121 121
- 1.291893 0 1 cbr 512 ------- 2 0.0 2.0 134 134
+ 1.295 0 1 cbr 512 ------- 2 0.0 2.0 159 159
r 1.29824 0 1 cbr 512 ------- 2 0.0 2.0 129 129
+ 1.29824 1 2 cbr 512 ------- 2 0.0 2.0 129 129
- 1.29824 1 2 cbr 512 ------- 2 0.0 2.0 129 129
+ 1.3 0 1 cbr 512 ------- 2 0.0 2.0 160 160
d 1.3 0 1 cbr 512 ------- 2 0.0 2.0 160 160
r 1.304587 1 2 cbr 512 ------- 2 0.0 2.0 123 123
+ 1.305 0 1 cbr 512 ------- 2 0.0 2.0 161 161
d 1.305 0 1 cbr 512 ------- 2 0.0 2.0 161 161
- 1.305547 0 1 cbr 512 ------- 2 0.0 2.0 137 137
+ 1.31 0 1 cbr 512 ------- 2 0.0 2.0 162 162
r 1.311893 0 1 cbr 512 ------- 2 0.0 2.0 132 132
+ 1.311893 1 2 cbr 512 ------- 2 0.0 2.0 132 132
- 1.311893 1 2 cbr 512 ------- 2 0.0 2.0 132 132
+ 1.315 0 1 cbr 512 ------- 2 0.0 2.0 163 163
d 1.315 0 1 cbr 512 ------- 2 0.0 2.0 163 163
r 1.31824 1 2 cbr 512 ------- 2 0.0 2.0 126 126
- 1.3192 0 1 cbr 512 ------- 2 0.0 2.0 140 140
+ 1.32 0 1 cbr 512 ------- 2 0.0 2.0 164 164
+ 1.325 0 1 cbr 512 ------- 2 0.0 2.0 165 165
d 1.325 0 1 cbr 512 ------- 2 0.0 2.0 165 165
r 1.325547 0 1 cbr 512 ------- 2 0.0 2.0 134 134
+ 1.325547 1 2 cbr 512 ------- 2 0.0 2.0 134 134
- 1.325547 1 2 cbr 512 ------- 2 0.0 2.0 134 134
+ 1.33 0 1 cbr 512 ------- 2 0.0 2.0 166 166
d 1.33 0 1 cbr 512 ------- 2 0.0 2.0 166 166
r 1.331893 1 2 cbr 512 ------- 2 0.0 2.0 129 129
- 1.332853 0 1 cbr 512 ------- 2 0.0 2.0 142 142
+ 1.335 0 1 cbr 512 ------- 2 0.0 2.0 167 167
r 1.3392 0 1 cbr 512 ------- 2 0.0 2.0 137 137
+ 1.3392 1 2 cbr 512 ------- 2 0.0 2.0 137 137
- 1.3392 1 2 cbr 512 ------- 2 0.0 2.0 137 137
+ 1.34 0 1 cbr 512 ------- 2 0.0 2.0 168 168
d 1.34 0 1 cbr 512 ------- 2 0.0 2.0 168 168
+ 1.345 0 1 cbr 512 ------- 2 0.0 2.0 169 169
d 1.345 0 1 cbr 512 ------- 2 0.0 2.0 169 169
r 1.345547 1 2 cbr 512 ------- 2 0.0 2.0 132 132
- 1.346507 0 1 cbr 512 ------- 2 0.0 2.0 145 145
+ 1.35 0 1 cbr 512 ------- 2 0.0 2.0 170 170
r 1.352853 0 1 cbr 512 ------- 2 0.0 2.0 140 140
+ 1.352853 1 2 cbr 512 ------- 2 0.0 2.0 140 140
- 1.352853 1 2 cbr 512 ------- 2 0.0 2.0 140 140
+ 1.355 0 1 cbr 512 ------- 2 0.0 2.0 171 171
d 1.355 0 1 cbr 512 ------- 2 0.0 2.0 171 171
r 1.3592 1 2 cbr 512 ------- 2 0.0 2.0 134 134
+ 1.36 0 1 cbr 512 ------- 2 0.0 2.0 172 172
d 1.36 0 1 cbr 512 ------- 2 0.0 2.0 172 172
- 1.36016 0 1 cbr 512 ------- 2 0.0 2.0 148 148
+ 1.365 0 1 cbr 512 ------- 2 0.0 2.0 173 173
r 1.366507 0 1 cbr 512 ------- 2 0.0 2.0 142 142
+ 1.366507 1 2 cbr 512 ------- 2 0.0 2.0 142 142
- 1.366507 1 2 cbr 512 ------- 2 0.0 2.0 142 142
+ 1.37 0 1 cbr 512 ------- 2 0.0 2.0 174 174
d 1.37 0 1 cbr 512 ------- 2 0.0 2.0 174 174
r 1.372853 1 2 cbr 512 ------- 2 0.0 2.0 137 137
- 1.373813 0 1 cbr 512 ------- 2 0.0 2.0 151 151
+ 1.375 0 1 cbr 512 ------- 2 0.0 2.0 175 175
+ 1.38 0 1 cbr 512 ------- 2 0.0 2.0 176 176
d 1.38 0 1 cbr 512 ------- 2 0.0 2.0 176 176
r 1.38016 0 1 cbr 512 ------- 2 0.0 2.0 145 145
+ 1.38016 1 2 cbr 512 ------- 2 0.0 2.0 145 145
- 1.38016 1 2 cbr 512 ------- 2 0.0 2.0 145 145
+ 1.385 0 1 cbr 512 ------- 2 0.0 2.0 177 177
d 1.385 0 1 cbr 512 ------- 2 0.0 2.0 177 177
r 1.386507 1 2 cbr 512 ------- 2 0.0 2.0 140 140
- 1.387467 0 1 cbr 512 ------- 2 0.0 2.0 153 153
+ 1.39 0 1 cbr 512 ------- 2 0.0 2.0 178 178
r 1.393813 0 1 cbr 512 ------- 2 0.0 2.0 148 148
+ 1.393813 1 2 cbr 512 ------- 2 0.0 2.0 148 148
- 1.393813 1 2 cbr 512 ------- 2 0.0 2.0 148 148
+ 1.395 0 1 cbr 512 ------- 2 0.0 2.0 179 179
d 1.395 0 1 cbr 512 ------- 2 0.0 2.0 179 179
+ 1.4 0 1 cbr 512 ------- 2 0.0 2.0 180 180
d 1.4 0 1 cbr 512 ------- 2 0.0 2.0 180 180
r 1.40016 1 2 cbr 512 ------- 2 0.0 2.0 142 142
- 1.40112 0 1 cbr 512 ------- 2 0.0 2.0 156 156
+ 1.405 0 1 cbr 512 ------- 2 0.0 2.0 181 181
r 1.407467 0 1 cbr 512 ------- 2 0.0 2.0 151 151
+ 1.407467 1 2 cbr 512 ------- 2 0.0 2.0 151 151
- 1.407467 1 2 cbr 512 ------- 2 0.0 2.0 151 151
+ 1.41 0 1 cbr 512 ------- 2 0.0 2.0 182 182
d 1.41 0 1 cbr 512 ------- 2 0.0 2.0 182 182
r 1.413813 1 2 cbr 512 ------- 2 0.0 2.0 145 145
- 1.414773 0 1 cbr 512 ------- 2 0.0 2.0 159 159
+ 1.415 0 1 cbr 512 ------- 2 0.0 2.0 183 183
+ 1.42 0 1 cbr 512 ------- 2 0.0 2.0 184 184
d 1.42 0 1 cbr 512 ------- 2 0.0 2.0 184 184
r 1.42112 0 1 cbr 512 ------- 2 0.0 2.0 153 153
+ 1.42112 1 2 cbr 512 ------- 2 0.0 2.0 153 153
- 1.42112 1 2 cbr 512 ------- 2 0.0 2.0 153 153
+ 1.425 0 1 cbr 512 ------- 2 0.0 2.0 185 185
d 1.425 0 1 cbr 512 ------- 2 0.0 2.0 185 185
r 1.427467 1 2 cbr 512 ------- 2 0.0 2.0 148 148
- 1.428427 0 1 cbr 512 ------- 2 0.0 2.0 162 162
+ 1.43 0 1 cbr 512 ------- 2 0.0 2.0 186 186
r 1.434773 0 1 cbr 512 ------- 2 0.0 2.0 156 156
+ 1.434773 1 2 cbr 512 ------- 2 0.0 2.0 156 156
- 1.434773 1 2 cbr 512 ------- 2 0.0 2.0 156 156
+ 1.435 0 1 cbr 512 ------- 2 0.0 2.0 187 187
d 1.435 0 1 cbr 512 ------- 2 0.0 2.0 187 187
+ 1.44 0 1 cbr 512 ------- 2 0.0 2.0 188 188
d 1.44 0 1 cbr 512 ------- 2 0.0 2.0 188 188
r 1.44112 1 2 cbr 512 ------- 2 0.0 2.0 151 151
- 1.44208 0 1 cbr 512 ------- 2 0.0 2.0 164 164
+ 1.445 0 1 cbr 512 ------- 2 0.0 2.0 189 189
r 1.448427 0 1 cbr 512 ------- 2 0.0 2.0 159 159
+ 1.448427 1 2 cbr 512 ------- 2 0.0 2.0 159 159
- 1.448427 1 2 cbr 512 ------- 2 0.0 2.0 159 159
+ 1.45 0 1 cbr 512 ------- 2 0.0 2.0 190 190
d 1.45 0 1 cbr 512 ------- 2 0.0 2.0 190 190
r 1.454773 1 2 cbr 512 ------- 2 0.0 2.0 153 153
+ 1.455 0 1 cbr 512 ------- 2 0.0 2.0 191 191
d 1.455 0 1 cbr 512 ------- 2 0.0 2.0 191 191
- 1.455733 0 1 cbr 512 ------- 2 0.0 2.0 167 167
+ 1.46 0 1 cbr 512 ------- 2 0.0 2.0 192 192
r 1.46208 0 1 cbr 512 ------- 2 0.0 2.0 162 162
+ 1.46208 1 2 cbr 512 ------- 2 0.0 2.0 162 162
- 1.46208 1 2 cbr 512 ------- 2 0.0 2.0 162 162
+ 1.465 0 1 cbr 512 ------- 2 0.0 2.0 193 193
d 1.465 0 1 cbr 512 ------- 2 0.0 2.0 193 193
r 1.468427 1 2 cbr 512 ------- 2 0.0 2.0 156 156
- 1.469387 0 1 cbr 512 ------- 2 0.0 2.0 170 170
+ 1.47 0 1 cbr 512 ------- 2 0.0 2.0 194 194